HEADER
"PSFversion" "1.00"
"I0n" "SEMICONDUCTOR_MEMORY_rram_cell_veriloga"
"N0n" "NCSU_Analog_Parts_nmos4_spectre"
"V0n" "NCSU_Analog_Parts_vpulse_spectre"
"V2n V1n" "NCSU_Analog_Parts_vdc_spectre"
