HEADER
"PSFversion" "1.00"
"TEv" "\:TEv"
"BEv" "\:BEv"
