HEADER
"PSFversion" "1.00"
"P4n P3n P2n P1n P5n" "NCSU_Analog_Parts_pmos4_spectre"
"N5n N4n N3n N2n N1n N0n" "NCSU_Analog_Parts_nmos4_spectre"
"Clkv" ":1v"
"Gndv" ":2v"
"Vddv" ":3v"
"Vin_nv" ":4v"
"Vin_pv" ":5v"
"out_mv" ":6v"
"out_pv" ":7v"
