HEADER
"PSFversion" "1.00"
"I0n" "Project2_Dynamic"
"V2n V1n V0n" "NCSU_Analog_Parts_vdc_spectre"
"V3n" "NCSU_Analog_Parts_vpulse_spectre"
