HEADER
"PSFversion" "1.00"
"design" "(\"ese6680\" \"Project1_Opamp\" \"schematic\" \"\")"
"simulator" "spectre"
"temperature" "27"
"host" ""
"date" "Feb 18 17:50:02 2026"
"title" ""
"analysisList" "()"
END
