HEADER
"PSFversion" "1.00"
"Time Stamp" "Feb 18 17:50:02 2026"
TYPE
"variable" STRUCT(
"value" FLOAT DOUBLE
) PROP( "key" "element" )
VALUE
"temp" "variable" ( 27 ) PROP( )
END
