HEADER
"PSFversion" "1.00"
"simulator" "spectre"
"version" "7.1.1.426.isr27"
"date" "2:19:34 PM, Mon Mar 30, 2026"
"design" "// Generated for: spectre"
"analysis type" "info.subckts"
"analysis name" "subckts"
"analysis description" "Circuit Information"
"xVecSorted" "unsorted"
"tolerance.relative" 0.00100000
TYPE
"subckt" STRUCT(
"subckt_params" STRING *
"subckt_terminals" STRING *
) PROP(
"key" "sub"
)
VALUE
"Project2_Dynamic" "subckt" (
""
"Clk Gnd Vdd Vin_n Vin_p out_m out_p"
)
END
