HEADER
"PSFversion" "1.00"
"design" "(\"ese6680\" \"Project2_Test_Dynamic\" \"schematic\" \"\")"
"simulator" "spectre"
"temperature" "27"
"host" ""
"date" "Mar 30 14:19:31 2026"
"title" ""
"analysisList" "()"
END
