HEADER
"PSFversion" "1.00"
"I0n" "hw3_2stage_opamp"
"V2n V1n V0n" "NCSU_Analog_Parts_vdc_spectre"
