HEADER
"PSFversion" "1.00"
"I0n" "Final_StaticComparator"
"V2n V0n" "analogLib_vdc_spectre"
"V1n" "analogLib_vsin_spectre"
"V3n" "analogLib_vpulse_spectre"
