HEADER
"PSFversion" "1.00"
"I32n I30n I24n I23n" "project_1"
"V17n V16n V15n V14n V13n V12n V11n V10n V8n V7n" "NCSU_Analog_Parts_vdc_spectre"
"V0n" "NCSU_Analog_Parts_vpulse_spectre"
"C5n C4n C3n C2n" "NCSU_Analog_Parts_cap_spectre"
