HEADER
"PSFversion" "1.00"
"design" "(\"ese6680\" \"Project2_Test_StaticComparator\" \"schematic\" \"\")"
"simulator" "spectre"
"temperature" "27"
"host" ""
"date" "Mar 25 19:34:53 2026"
"title" ""
"analysisList" "()"
END
