HEADER
"PSFversion" "1.00"
"simulator" "spectre"
"version" "7.1.1.426.isr27"
"date" "7:34:56 PM, Wed Mar 25, 2026"
"design" "// Generated for: spectre"
"analysis type" "info.subckts"
"analysis name" "subckts"
"analysis description" "Circuit Information"
"xVecSorted" "unsorted"
"tolerance.relative" 0.00100000
TYPE
"subckt" STRUCT(
"subckt_params" STRING *
"subckt_terminals" STRING *
) PROP(
"key" "sub"
)
VALUE
"Project2_StaticComparator" "subckt" (
""
"Gnd STROBE Vdd Vi1 Vi2 Vo1 Vo2"
)
END
