HEADER
"PSFversion" "1.00"
"V0n V2n V1n" "NCSU_Analog_Parts_vdc_spectre"
"I0n" "Project1_Opamp"
