HEADER
"PSFversion" "1.00"
"I0n" "Project1_Opamp"
"Csn Cfn" "NCSU_Analog_Parts_cap_spectre"
"N6n N5n N3n N4n N0n N1n N2n" "NCSU_Analog_Parts_nmos4_spectre"
"V2n V0n V1n" "NCSU_Analog_Parts_vdc_spectre"
"P5n P4n P0n P3n P2n P1n" "NCSU_Analog_Parts_pmos4_spectre"
"GNDv" ":1v"
"Phi1v" ":2v"
"Phi1Ev" ":3v"
"Phi2v" ":4v"
"VDDv" ":5v"
"Vin+v" ":6v"
"Vin-v" ":7v"
"Voutv" ":8v"
