HEADER
"PSFversion" "1.00"
"I0n" "Project3_MDAC"
"V5n V0n" "NCSU_Analog_Parts_vdc_spectre"
"V4n V3n V2n V1n" "NCSU_Analog_Parts_vpulse_spectre"
