HEADER
"PSFversion" "1.00"
"design" "(\"ese6680\" \"Test_Opamp_Hw3_SlewRate\" \"schematic\" \"\")"
"simulator" "spectre"
"temperature" "27"
"host" ""
"date" "Feb 19 17:19:52 2026"
"title" ""
"analysisList" "()"
END
