HEADER
"PSFversion" "1.00"
"__NEXT_FILE__" "project_2_flip_around"
