HEADER
"PSFversion" "1.00"
"vpv" "\:vpv"
"vnv" "\:vnv"
