HEADER
"PSFversion" "1.00"
"Cfn Csn" "ahdlLib_cap_veriloga"
"N10n N9n N8n N7n N6n N1n N0n" "NCSU_Analog_Parts_nmos4_spectre"
"I1n" "opamp_project_1"
"P12n P11n P10n P9n P8n P1n P0n" "NCSU_Analog_Parts_pmos4_spectre"
"V0n" "analogLib_vdc_spectre"
"GNDv" ":1v"
"Phi1v" ":2v"
"Phi1Ev" ":3v"
"Phi2v" ":4v"
"VDDv" ":5v"
"Vin+v" ":6v"
"Vin-v" ":7v"
"Voutv" ":8v"
