HEADER
"PSFversion" "1.00"
"I0n" "Final_MDAC"
"V2n V0n" "analogLib_vdc_spectre"
"V5n V4n V3n" "analogLib_vpulse_spectre"
"V6n" "NCSU_Analog_Parts_vpulse_spectre"
