HEADER
"PSFversion" "1.00"
"I0n" "non_overlapping_clock"
"V0n" "NCSU_Analog_Parts_vdc_spectre"
"V1n" "NCSU_Analog_Parts_vpulse_spectre"
