HEADER
"PSFversion" "1.00"
"I218n I217n I220n I221n I205n I208n I203n I210n I207n I206n I209n I202n I204n I201n" "buffer"
"I214n I213n I198n I197n" "nand"
"I215n I212n I211n I216n I219n I200n I199n" "inv"
"CLKv" ":1v"
"Phi1v" ":2v"
"Phi1Ev" ":3v"
"Phi2v" ":4v"
"VDDv" ":5v"
"phi1'v" ":6v"
"phi2'v" ":7v"
