HEADER
"PSFversion" "1.00"
"simulator" "spectre"
"version" "7.1.1.426.isr27"
"date" "4:39:09 PM, Thur Feb 19, 2026"
"design" "// Generated for: spectre"
"analysis type" "info.subckts"
"analysis name" "subckts"
"analysis description" "Circuit Information"
"xVecSorted" "unsorted"
"tolerance.relative" 0.00100000
TYPE
"subckt" STRUCT(
"subckt_params" STRING *
"subckt_terminals" STRING *
) PROP(
"key" "sub"
)
VALUE
"hw3_2stage_opamp" "subckt" (
""
"GND VDD Vin+ Vin- Vout"
)
END
