HEADER
"PSFversion" "1.00"
"Time Stamp" "Feb 19 16:39:05 2026"
TYPE
"variable" STRUCT(
"value" FLOAT DOUBLE
) PROP( "key" "element" )
VALUE
"vdc" "variable" ( 2.5 ) PROP( )
"vac" "variable" ( 1 ) PROP( )
"temp" "variable" ( 27 ) PROP( )
END
