HEADER
"PSFversion" "1.00"
"M2n M1n M7n M5n M8n" "NCSU_Analog_Parts_pmos4_spectre"
"M6n M4n M3n" "NCSU_Analog_Parts_nmos4_spectre"
"C1n C0n" "NCSU_Analog_Parts_cap_spectre"
"RCn" "NCSU_Analog_Parts_res_spectre"
"I0n" "NCSU_Analog_Parts_idc_spectre"
"GNDv" ":1v"
"VDDv" ":2v"
"Vin+v" ":3v"
"Vin-v" ":4v"
"Voutv" ":5v"
