HEADER
"PSFversion" "1.00"
"V1n" "NCSU_Analog_Parts_vdc_spectre"
"I0n" "hw3_2stage_opamp"
"V0n" "NCSU_Analog_Parts_vpulse_spectre"
