HEADER
"PSFversion" "1.00"
"design" "(\"ese6680\" \"Project2_Test_Static_PartC\" \"schematic\" \"\")"
"simulator" "spectre"
"temperature" "27"
"host" ""
"date" "Mar 26 12:24:05 2026"
"title" ""
"analysisList" "()"
END
