HEADER
"PSFversion" "1.00"
"Time Stamp" "Mar 30 14:19:32 2026"
TYPE
"variable" STRUCT(
"value" FLOAT DOUBLE
) PROP( "key" "element" )
VALUE
"vd" "variable" ( 79.3333333333334e-3 ) PROP( )
"temp" "variable" ( 27 ) PROP( )
END
