HEADER
"PSFversion" "1.00"
"Time Stamp" "Mar 30 14:19:33 2026"
TYPE
"variable" STRUCT(
"value" FLOAT DOUBLE
) PROP( "key" "element" )
VALUE
"vd" "variable" ( 79.5555555555556e-3 ) PROP( )
"temp" "variable" ( 27 ) PROP( )
END
