HEADER
"PSFversion" "1.00"
"design" "(\"ESE6680_PROJECT3\" \"Test1\" \"schematic\" \"\")"
"simulator" "spectre"
"temperature" "27"
"host" ""
"date" "Apr 29 15:24:02 2026"
"title" ""
"analysisList" "()"
END
