HEADER
"PSFversion" "1.00"
"design" "(\"ESE6680_PROJECT3\" \"Test1\" \"schematic\" \"\")"
"simulator" "spectre"
"temperature" "27"
"host" ""
"date" "May  1 08:49:08 2026"
"title" ""
"analysisList" "()"
END
