HEADER
"PSFversion" "1.00"
"simulator" "spectre"
"version" "7.1.1.426.isr27"
"date" "8:49:09 AM, Fri May 1, 2026"
"design" "// Generated for: spectre"
"analysis type" "info.subckts"
"analysis name" "subckts"
"analysis description" "Circuit Information"
"xVecSorted" "unsorted"
"tolerance.relative" 0.00100000
TYPE
"subckt" STRUCT(
"subckt_params" STRING *
"subckt_terminals" STRING *
) PROP(
"key" "sub"
)
VALUE
"m_opamp" "subckt" (
""
"GND VDD Vin+ Vin- Vout"
)
"inv" "subckt" (
""
"IN OUT VDD 0"
)
"nand" "subckt" (
""
"A B OUT VDD 0"
)
"Final_MDAC" "subckt" (
""
"GND Phi1 Phi1E Phi2 VDD Vin+ Vin- Vout"
)
"non_overlapping_clock" "subckt" (
""
"CLK Phi1 Phi1E Phi2 VDD 0"
)
"buffer" "subckt" (
""
"IN OUT VDD 0"
)
END
