HEADER
"PSFversion" "1.00"
"Time Stamp" "May  1 08:49:08 2026"
TYPE
"variable" STRUCT(
"value" FLOAT DOUBLE
) PROP( "key" "element" )
VALUE
"temp" "variable" ( 27 ) PROP( )
END
