HEADER
"PSFversion" "1.00"
"I7n" "Project2_StaticComparator"
"V2n V1n V0n" "NCSU_Analog_Parts_vdc_spectre"
"V3n" "NCSU_Analog_Parts_vpulse_spectre"
