HEADER
"PSFversion" "1.00"
"design" "(\"ese6680\" \"Project1_Test\" \"schematic\" \"\")"
"simulator" "spectre"
"temperature" "27"
"host" ""
"date" "Feb 18 18:11:16 2026"
"title" ""
"analysisList" "()"
END
