HEADER
"PSFversion" "1.00"
"design" "(\"ese6680\" \"Project3_MDAC_test\" \"schematic\" \"\")"
"simulator" "spectre"
"temperature" "27"
"host" ""
"date" "Apr 21 16:10:31 2026"
"title" ""
"analysisList" "()"
END
