HEADER
"PSFversion" "1.00"
"simulator" "spectre"
"version" "7.1.1.426.isr27"
"date" "5:08:55 PM, Tue Apr 28, 2026"
"design" "// Generated for: spectre"
"analysis type" "info.subckts"
"analysis name" "subckts"
"analysis description" "Circuit Information"
"xVecSorted" "unsorted"
"tolerance.relative" 0.00100000
TYPE
"subckt" STRUCT(
"subckt_params" STRING *
"subckt_terminals" STRING *
) PROP(
"key" "sub"
)
VALUE
"Project1_Opamp" "subckt" (
""
"GND VDD Vin+ Vin- Vout"
)
"Project3_MDAC" "subckt" (
""
"GND Phi1 Phi1E Phi2 VDD Vin+ Vin- Vout"
)
END
