HEADER
"PSFversion" "1.00"
"N7n N6n N5n N4n N3n N2n N1n N0n" "NCSU_Analog_Parts_nmos4_spectre"
"P4n P3n P2n P1n P0n" "NCSU_Analog_Parts_pmos4_spectre"
"C1n C0n" "analogLib_cap_spectre"
"CLKSv" ":1v"
"GNDv" ":2v"
"VDDv" ":3v"
"VINv" ":4v"
"VOUTv" ":5v"
