HEADER
"PSFversion" "1.00"
"I21n I20n I19n I18n I17n I16n I8n I22n" "one_bit_stage"
"I23n" "SR1"
"I24n" "SR2"
"I25n" "SR3"
"I26n" "SR4"
"I27n" "SR5"
"I28n" "SR6"
"I29n" "SR7"
"B1v" ":1v"
"B2v" ":2v"
"B3v" ":3v"
"B4v" ":4v"
"B5v" ":5v"
"B6v" ":6v"
"B7v" ":7v"
"B8v" ":8v"
"CLKINv" ":9v"
"GNDv" ":10v"
"VDDv" ":11v"
"VINv" ":12v"
"VOUT1v" ":13v"
"VOUT2v" ":14v"
"VOUT3v" ":15v"
"VOUT4v" ":16v"
"VOUT5v" ":17v"
"VOUT6v" ":18v"
"VOUT7v" ":19v"
"VOUT8v" ":20v"
