HEADER
"PSFversion" "1.00"
"I0n" "ESE6680_PROJECT3_8bit_ADC_schematic"
"V1n" "analogLib_vdc_spectre"
"V4n" "analogLib_vsin_spectre"
"V5n" "analogLib_vpulse_spectre"
"I5n" "ahdlLib_dac_8bit_ideal_veriloga"
