HEADER
"PSFversion" "1.00"
"N2n N1n N0n N3n N4n N6n N5n" "NCSU_Analog_Parts_nmos4_spectre"
"P1n P2n P0n P3n P5n P4n" "NCSU_Analog_Parts_pmos4_spectre"
"Cfn Csn" "NCSU_Analog_Parts_cap_spectre"
"V2n V0n V1n" "NCSU_Analog_Parts_vdc_spectre"
"I0n" "m_opamp"
"GNDv" ":1v"
"Phi1v" ":2v"
"Phi1Ev" ":3v"
"Phi2v" ":4v"
"VDDv" ":5v"
"Vin+v" ":6v"
"Vin-v" ":7v"
"Voutv" ":8v"
