HEADER
"PSFversion" "1.00"
"I1n I0n" "DFF"
"CLKINv" ":1v"
"GNDv" ":2v"
"SR2IPv" ":3v"
"SR2OPv" ":4v"
"VDDv" ":5v"
