HEADER
"PSFversion" "1.00"
"I3n I2n I1n I0n" "DFF"
"CLKINv" ":1v"
"GNDv" ":2v"
"SR4IPv" ":3v"
"SR4OPv" ":4v"
"VDDv" ":5v"
