HEADER
"PSFversion" "1.00"
"I6n I5n I4n I3n I2n I1n I0n" "DFF"
"CLKINv" ":1v"
"GNDv" ":2v"
"SR7IPv" ":3v"
"SR7OPv" ":4v"
"VDDv" ":5v"
