HEADER
"PSFversion" "1.00"
"__NEXT_FILE__" "ESE6680_PROJECT3_8bit_test_schematic"
