HEADER
"PSFversion" "1.00"
"I1n I0n" "inv"
"INv" ":1v"
"OUTv" ":2v"
"VDDv" ":3v"
