HEADER
"PSFversion" "1.00"
"P4n P3n P2n P1n P0n" "NCSU_Analog_Parts_pmos4_spectre"
"N2n N1n N0n" "NCSU_Analog_Parts_nmos4_spectre"
"I0n" "NCSU_Analog_Parts_idc_spectre"
"R0n" "NCSU_Analog_Parts_res_spectre"
"C1n C0n" "NCSU_Analog_Parts_cap_spectre"
"V6n V5n V0n" "NCSU_Analog_Parts_vdc_spectre"
