HEADER
"PSFversion" "1.00"
"__NEXT_FILE__" "Project_2_bottom_plate"
