HEADER
"PSFversion" "1.00"
"R3n R2n R1n R0n" "analogLib_res_spectre"
"N1n N0n" "NCSU_Analog_Parts_nmos4_spectre"
"P1n P0n" "NCSU_Analog_Parts_pmos4_spectre"
"V0n" "analogLib_vdc_spectre"
"V2n V1n" "analogLib_vpulse_spectre"
