HEADER
"PSFversion" "1.00"
"V3n V0n V2n V1n" "NCSU_Analog_Parts_vdc_spectre"
"I7n" "Project2_StaticComparator"
