HEADER
"PSFversion" "1.00"
"__NEXT_FILE__" "Project2_Test_Static_PartC"
