HEADER
"PSFversion" "1.00"
"design" "(\"ESE6680_PROJECT3\" \"Vref_gen\" \"schematic\" \"\")"
"simulator" "spectre"
"temperature" "27"
"host" ""
"date" "Apr 26 23:52:14 2026"
"title" ""
"analysisList" "()"
END
