HEADER
"PSFversion" "1.00"
"I9n" "Project1_Opamp"
"V2n V1n V0n" "NCSU_Analog_Parts_vdc_spectre"
