HEADER
"PSFversion" "1.00"
"M4n M3n M6n" "NCSU_Analog_Parts_nmos4_spectre"
"Ccn CLn" "NCSU_Analog_Parts_cap_spectre"
"M7n M5n M8n M2n M1n" "NCSU_Analog_Parts_pmos4_spectre"
"Irefn" "NCSU_Analog_Parts_idc_spectre"
"Rcn" "NCSU_Analog_Parts_res_spectre"
