HEADER
"PSFversion" "1.00"
"R0n" "NCSU_Analog_Parts_res_spectre"
"V0n" "NCSU_Analog_Parts_vdc_spectre"
"M9n M10n" "NCSU_Analog_Parts_nmos4_spectre"
