HEADER
"PSFversion" "1.00"
"N2n N0n N1n" "NCSU_Analog_Parts_nmos4_spectre"
"C7n C3n C8n" "NCSU_Analog_Parts_cap_spectre"
"V6n" "NCSU_Analog_Parts_vsin_spectre"
"V10n V11n V12n V13n" "NCSU_Analog_Parts_vpulse_spectre"
"I38n" "opamp_project_1"
"V8n V9n V0n" "NCSU_Analog_Parts_vdc_spectre"
"P2n P0n P1n" "NCSU_Analog_Parts_pmos4_spectre"
