HEADER
"PSFversion" "1.00"
"N0n" "NCSU_Analog_Parts_nmos4_spectre"
"C0n" "NCSU_Analog_Parts_cap_spectre"
"V0n" "NCSU_Analog_Parts_vpulse_spectre"
"V1n" "NCSU_Analog_Parts_vsin_spectre"
