HEADER
"PSFversion" "1.00"
"I25n I27n I159n I29n I17n I28n I14n I155n" "inv"
"I176n I164n I175n I163n" "buffer"
"I83n I82n I15n I16n" "nand"
"CLKv" ":1v"
"VDDv" ":2v"
"phi1v" ":3v"
"phi1'v" ":4v"
"phi2v" ":5v"
"phi2'v" ":6v"
