HEADER
"PSFversion" "1.00"
"I0n" "non_overlapping_clock"
"I1n" "project_2_baseline_design"
"V1n V0n" "NCSU_Analog_Parts_vdc_spectre"
"V2n" "NCSU_Analog_Parts_vpulse_spectre"
"V6n" "NCSU_Analog_Parts_vsin_spectre"
