HEADER
"PSFversion" "1.00"
"__NEXT_FILE__" "opamp_test_with_clock"
