HEADER
"PSFversion" "1.00"
"design" "(\"ese6680\" \"Test_Opamp_Hw3_ICMR\" \"schematic\" \"\")"
"simulator" "spectre"
"temperature" "27"
"host" ""
"date" "Feb 19 16:51:46 2026"
"title" ""
"analysisList" "()"
END
