HEADER
"PSFversion" "1.00"
"V1n V0n V2n" "NCSU_Analog_Parts_vdc_spectre"
"I0n" "hw3_2stage_opamp"
