HEADER
"PSFversion" "1.00"
"design" "(\"ese6680\" \"Project1_Test_Phase\" \"schematic\" \"\")"
"simulator" "spectre"
"temperature" "27"
"host" ""
"date" "Feb 13 10:37:50 2026"
"title" ""
"analysisList" "()"
END
