HEADER
"PSFversion" "1.00"
"design" "(\"ESE6680_PROJECT3\" \"opamp_test_with_clock\" \"schematic\" \"\")"
"simulator" "spectre"
"temperature" "27"
"host" ""
"date" "Apr 21 14:02:31 2026"
"title" ""
"analysisList" "()"
END
