HEADER
"PSFversion" "1.00"
"Time Stamp" "Apr 21 14:02:31 2026"
TYPE
"variable" STRUCT(
"value" FLOAT DOUBLE
) PROP( "key" "element" )
VALUE
"temp" "variable" ( 27 ) PROP( )
END
