HEADER
"PSFversion" "1.00"
"N8n N7n N6n N5n N4n N3n N2n N1n N0n" "NCSU_Analog_Parts_nmos4_spectre"
"P4n P3n P2n P1n P0n" "NCSU_Analog_Parts_pmos4_spectre"
"CLKv" ":1v"
"Dv" ":2v"
"GNDv" ":3v"
"Qv" ":4v"
"VDDv" ":5v"
