HEADER
"PSFversion" "1.00"
"I0n" "non_overlapping_clock"
"I1n" "Final_StaticComparator"
"I2n" "Vref_gen"
"I3n" "Final_MDAC"
"I4n" "project_2_baseline_design"
"V0n" "analogLib_vdc_spectre"
"I16n" "DFF"
"BITv" ":1v"
"CLKINv" ":2v"
"GNDv" ":3v"
"VDDv" ":4v"
"VINv" ":5v"
"VOUTv" ":6v"
