HEADER
"PSFversion" "1.00"
"N2n N0n N1n" "NCSU_Analog_Parts_nmos4_spectre"
"C7n C3n C8n" "NCSU_Analog_Parts_cap_spectre"
"I40n" "opamp_project_1"
"V9n" "NCSU_Analog_Parts_vdc_spectre"
"P2n P0n P1n" "NCSU_Analog_Parts_pmos4_spectre"
"Outputv" ":1v"
"VDDv" ":2v"
"Vinv" ":3v"
"half_VDDv" ":4v"
"phi1v" ":5v"
"phi1'v" ":6v"
"phi2v" ":7v"
"phi2'v" ":8v"
