HEADER
"PSFversion" "1.00"
"__NEXT_FILE__" "one_bit_test_bench"
